% Model:              P2_wire.mph
% Version:            COMSOL 5.3.1.180
% Date:               May 24 2020, 18:38
% Dimension:          3
% Nodes:              7444
% Expressions:        15
% Description:        Normal, x component, Normal, y component, Normal, z component, Tangent 1, x component, Tangent 1, y component, Tangent 1, z component, Tangent 2, x component, Tangent 2, y component, Tangent 2, z component, , , , , , 
% Length unit:        nm
% X                       Y                        Z                        nx @ lambda0=1400        ny @ lambda0=1400        nz @ lambda0=1400        t1x @ lambda0=1400       t1y @ lambda0=1400       t1z @ lambda0=1400       t2x @ lambda0=1400       t2y @ lambda0=1400       t2z @ lambda0=1400       down(real(ewfd.Ex)) (V/m) @ lambda0=1400 down(imag(ewfd.Ex)) (V/m) @ lambda0=1400 down(real(ewfd.Ey)) (V/m) @ lambda0=1400 down(imag(ewfd.Ey)) (V/m) @ lambda0=1400 down(real(ewfd.Ez)) (V/m) @ lambda0=1400 down(imag(ewfd.Ez)) (V/m) @ lambda0=1400
-150                      13.024412145596328       -2.2664548161778706      -1                       0                        0                        0                        1                        0                        0                        0                        1                        0.13411141639509636      0.31394255074913174      -0.07685865420271978     -0.1589616084866131      0.0393561222242751       0.018925559725906007
-150                      15                       0                        -1                       0                        0                        0                        1                        0                        0                        0                        1                        0.14717511247472795      0.3445843797849895       -0.08173729516748021     -0.1713365776173358      -7.584430159933949E-4    -0.06968803502313745
-150                      15                       -3                       -1                       0                        0                        0                        1                        2.093456611578367E-17    0                        0                        1                        0.14908436095887143      0.348123937627989        -0.08585433328486726     -0.17901451332914112     0.05509321207032253      0.052291708582021736
-150                      12                       0                        -1                       0                        0                        0                        1                        0                        0                        0                        1                        0.12894736359205475      0.3026943592073317       -0.0711525035081707      -0.14746557317090178     -9.126534068545243E-4    -0.06831099908163883
-150                      12.790348106097305       -4.608579165515489       -1                       0                        0                        0                        1                        0                        0                        0                        1                        0.13538008143835467      0.3161418407330697       -0.07773031998852008     -0.15978573517133338     0.08293745630631043      0.11653331111792181
-150                      15                       -5.999999999999998       -1                       0                        0                        0                        1                        1.0467283057891835E-17   0                        0                        1                        0.1559084277200383       0.36281251361152494      -0.09143787845872187     -0.18944064888288423     0.11549865076976061      0.1889886242648279
-150                      12.585112217398706       -7.372506221948406       -1                       0                        0                        0                        1                        0                        0                        0                        1                        0.14299216856621066      0.33242066924412866      -0.0854036214392976      -0.17561319029749503     0.13810023243533567      0.24422416204023623
-150                      15                       -9                       -1                       -6.6990611570507745E-16  0                        -6.6990611570507745E-16  1                        -2.093456611578367E-17   0                        0                        1                        0.1651868188735335       0.38209142403116036      -0.10298321227099443     -0.21273667872972554     0.18785881859592227      0.3586389439774223
-150                      12.862438552484607       -13.090714503420783      -1                       0                        0                        0                        1                        0                        0                        0                        1                        0.23626384780100868      0.5379640713132812       -0.11797878322666026     -0.24488264501544493     0.3717770710120098       0.8000775135240342
-150                      15                       -12                      -1                       0                        0                        0                        1                        0                        0                        0                        1                        0.17830954921407968      0.41012088673871533      -0.12895196852529953     -0.268075982160682       0.2740852206825867       0.569052276773019
-150                      15                       -15                      -0.5714285714285714      0                        -0.42857142857142855     0.42857142857142855      0.5714285714285714       0                        0                        0.42857142857142855      0.5714285714285714       0.6556426082532775       1.4778267507981826       -0.17860324799535568     -0.3749148061298872      0.7126226854598959       1.587009105337099
-150                      10.365032846879405       -2.721674357050913       -1                       0                        0                        0                        1                        0                        0                        0                        1                        0.12544470510498468      0.2945223707680431       -0.06348227320250004     -0.13052290004853218     0.0450455150110455       0.0326646538314709
-150                      9                        0                        -1                       0                        0                        0                        1                        0                        0                        0                        1                        0.12149774339144663      0.286201525969987        -0.054769442602709974    -0.11285315117091771     -7.81083067887852E-4     -0.06699346930817192
-150                      12                       -15                      -0.5                     0                        -0.5                     0.5                      0.5                      0                        0                        0.5                      0.5                      0.6881857809958208       1.552789457535142        -0.12972399076171326     -0.2716685370050137      0.69306457311908         1.5475862815472565
-150                      12.323434413051658       -10.458626820283758      -1                       0                        0                        0                        1                        0                        0                        0                        1                        0.1609711447786038       0.37203245886851316      -0.09631997420036595     -0.1986360536999053      0.21351091544028553      0.4253867751108632
-150                      10.302733724934374       -5.797389321197819       -1                       0                        0                        0                        1                        0                        0                        0                        1                        0.1309402267593477       0.306277053379476        -0.06761918981041139     -0.13872128304709944     0.09978598611854489      0.15680709470283824
-150                      10.377847994317822       -8.126938993044654       -1                       0                        0                        0                        1                        0                        0                        0                        1                        0.13860297851512757      0.3223575556460984       -0.0733772878076874      -0.1505774348745229      0.1488144236943129       0.2717173675853138
-150                      10.369747051574686       -12.848156083780683      -1                       0                        0                        0                        1                        0                        0                        0                        1                        0.1677741068184759       0.38612479407527833      -0.08282496949880651     -0.1704124477934398      0.2951960256339736       0.6279042358067889
-150                      8.249691858913797        -4.656021902916486       -1                       0                        0                        0                        1                        0                        0                        0                        1                        0.12416102544659528      0.29140581215030437      -0.05326129465975438     -0.10910857194645876     0.07645567142582287      0.1042116054283488
-150                      7.301289633874127        -2.510119079396194       -1                       0                        0                        0                        1                        0                        0                        0                        1                        0.11991956349551093      0.282295432591843        -0.04576225210709799     -0.09375296538478876     0.039415077177452684     0.021163276968590206
-150                      6.000000000000001        0                        -1                       0                        0                        0                        1                        0                        0                        0                        1                        0.11721989830495133      0.27666825808498113      -0.03732477664340734     -0.0766831253031716      -7.62012816369873E-4     -0.06630203448887319
-150                      9                        -15                      -0.5                     0                        -0.5                     0.5                      0.5                      0                        0                        0.5                      0.5                      0.6700144828943263       1.5130163979161104       -0.08391211269905936     -0.17401638801379157     0.6415341690587947       1.4333537855297254
-150                      8.93412204932741         -10.35696014811743       -1                       0                        0                        0                        1                        0                        0                        0                        1                        0.14967702432712224      0.3470330746127231       -0.06986799583545984     -0.14380745193060898     0.20106073090726614      0.3987000259812583
-150                      7.7600903665538          -7.364158143642836       -1                       0                        0                        0                        1                        0                        0                        0                        1                        0.13016875041678586      0.30407145639992667      -0.054129609659363066    -0.11090076029459207     0.1252762055936744       0.21777262096238786
-149.99999999999997       7.503359797270751        -12.536336552970392      -1                       0                        0                        0                        1                        0                        0                        0                        1                        0.1713437650218744       0.3937651700418186       -0.06256863985788526     -0.12913852677257362     0.2788041154132625       0.5886434196833207
-150                      5.922990469656715        -4.954553638779668       -1                       0                        0                        0                        1                        0                        0                        0                        1                        0.12177063084263856      0.28593260657582653      -0.03876173460352344     -0.07925843991588616     0.07927214468071209      0.11133426573413602
-150                      4.365554848678924        -2.4659095623873393      -1                       0                        0                        0                        1                        0                        0                        0                        1                        0.11686812040393296      0.2754714070606194       -0.02764318267308759     -0.056566562906083605    0.03728826343913214      0.016997883231670046
-150                      3.0000000000000027       0                        -1                       0                        0                        0                        1                        0                        0                        0                        1                        0.11517266836665242      0.27209952787362035      -0.018797600805073415    -0.03852020413766021     -6.167956774578758E-4    -0.06563566428527419
-150                      5.999999999999998        -15                      -0.5                     0                        -0.5                     0.5                      0.5                      0                        0                        0.5                      0.5                      0.567567932400384        1.288018704563488        -0.06014831652294503     -0.12531081041322897     0.5462713990474567       1.2228715455452779
-150                      6.040636571622364        -10.017161657388046      -1                       0                        0                        0                        1                        0                        0                        0                        1                        0.14011990796989657      0.3256487710311773       -0.04556595394835746     -0.09353805893662227     0.18252189348892026      0.35632926943769583
-150                      4.603377181183674        -7.5108958493011535      -1                       0                        0                        0                        1                        0                        0                        0                        1                        0.12679913416967978      0.29659130004173123      -0.03217839371089041     -0.06577566921971449     0.1250736215378219       0.21838080837081852
-150                      4.499999999999999        -12.401923788646682      -1                       0                        0                        0                        1                        0                        0                        0                        1                        0.154633632617139        0.35665380606226854      -0.04190987710057207     -0.08709763219415735     0.2588952481834986       0.5435624093804498
-150                      2.9031287965278474       -4.919635289322013       -1                       0                        0                        0                        1                        0                        0                        0                        1                        0.11948592826082938      0.28083837848986365      -0.01903981815624999     -0.03883264960572445     0.07705125993921276      0.10676945551075256
-150                      1.4130725690400527       -2.487649256217729       -1                       0                        0                        0                        1                        0                        0                        0                        1                        0.11580193542345367      0.2731535053391782       -0.008990073143007041    -0.018327905265688196    0.0374064976243583       0.017504128117147768
-150                      4.4408920985006257E-16   0                        -1                       0                        0                        0                        1                        0                        0                        0                        1                        0.11414374944256683      0.26992358787998977      -1.110764138093094E-4    -1.824929863474274E-4    -7.294081373506378E-4    -0.06577574901626147
-150                      2.999999999999998        -15                      -0.5                     0                        -0.5                     0.5                      0.5                      0                        0                        0.5                      0.5                      0.6420681919239933       1.4507054829203583       -0.021776987522286278    -0.04453648514840889     0.6254355268685504       1.3981508278428028
-150                      2.979934246219438        -9.897104988139558       -1                       0                        0                        0                        1                        0                        0                        0                        1                        0.1388591331581516       0.32288198704974586      -0.022590655999042895    -0.04638584296656886     0.17845755681107242      0.3470519245054902
-150                      1.5126323121231742       -7.344008902590236       -1                       0                        0                        0                        1                        0                        0                        0                        1                        0.12530883506922602      0.2931713369388362       -0.01050063232271395     -0.021459994962995135    0.12026913038026056      0.20760527342174043
-150                      1.4999999999999956       -12.40192378864668       -1                       0                        0                        0                        1                        0                        0                        0                        1                        0.14192166590339403      0.32954698822609874      -0.0028250714113495826   -0.004355092230417141    0.23978483061156267      0.5011982057381356
-150                      -0.08835633052040935     -4.906875722608497       -1                       0                        0                        0                        1                        0                        0                        0                        1                        0.11862191727895349      0.2788658969120348       4.7758889232451477E-4    0.001016389480805046     0.07618664766922935      0.10494419733906972
-150                      -1.5378408664096497      -2.4968543247161277      -1                       0                        0                        0                        1                        0                        0                        0                        1                        0.1156357270059149       0.27267398346138055      0.009780918743667202     0.020082061762587467     0.03757925357967271      0.017906995170721113
-150                      -3                       0                        -1                       0                        0                        0                        1                        0                        0                        0                        1                        0.11496918356705978      0.27173817077972034      0.018823066032007642     0.03868724721590731      -7.730530466682506E-4    -0.06595366216334207
-149.99999999999997       -4.496403249731884E-15   -14.999999999999996      -0.5                     0                        -0.5                     0.5                      0.5                      0                        0                        0.5                      0.5                      0.5350586212666665       1.2136832969392102       0.006025119484501756     0.01305624187645541      0.567671529099191        1.268572675284594
-150                      -0.06730883912800323     -9.960532684314945       -1                       0                        0                        0                        1                        0                        0                        0                        1                        0.13854308675420118      0.3223975768675591       1.4873398159252947E-4    2.8402974082885284E-4    0.17872201964435444      0.34806118067367203
-150                      -1.6120846835972686      -7.4880657430728865      -1                       0                        0                        0                        1                        0                        0                        0                        1                        0.12626770955262737      0.29542249956221184      0.011210218456433448     0.022952828307129646     0.12327800403648348      0.21473236673942955
-150                      -1.5423314151646614      -12.531950780199075      -1                       0                        0                        0                        1                        0                        0                        0                        1                        0.14774391608853238      0.34265443694733605      0.005625396472528878     0.010643490930998539     0.23745238647901265      0.49772728172924224
-150                      -3.092511493546639       -4.971773352185409       -1                       0                        0                        0                        1                        0                        0                        0                        1                        0.1197153533928811       0.28130886792341886      0.020207012683166024     0.04131649013295886      0.07788363967161392      0.10864474681121404
-150                      -4.522988598134198       -2.5043853061995267      -1                       0                        0                        0                        1                        0                        0                        0                        1                        0.11687819093762346      0.27544067617295537      0.02861527889688872      0.05862517133412696      0.03817892672338469      0.018970796848180288
-150.00000000000003       -6                       0                        -1                       0                        0                        0                        1                        0                        0                        0                        1                        0.11704260479165507      0.2762322498369491       0.03724221490835159      0.07661641227984754      -6.455187947311896E-4    -0.06605746744698034
-150                      -3.0000000000000053      -15                      -0.5                     0                        -0.5                     0.5                      0.5                      0                        0                        0.5                      0.5                      0.6126373714405499       1.3851413512182715       0.025493261825883445     0.052667374000557654     0.5950791011273239       1.3307209084173384
-150                      -3.014644314078251       -10.047465415253221      -1                       0                        0                        0                        1                        0                        0                        0                        1                        0.13960913632620894      0.32450253023324854      0.02229373264468064      0.04572159102680995      0.18270220814312343      0.3572467431137807
-150                      -4.693355065327848       -7.612972174972897       -1                       0                        0                        0                        1                        0                        0                        0                        1                        0.1281463551172341       0.2995824739266486       0.03278482894181748      0.06712749279520487      0.12692170170967063      0.22287077647253065
-150                      -4.518069238881895       -12.50541643551797       -1                       0                        0                        0                        1                        0                        0                        0                        1                        0.14680916432990418      0.3400499864663375       0.03070528060034891      0.062238612163829816     0.24333701411619427      0.5096049014135308
-150                      -6.1063958461537196      -5.076693658164348       -1                       0                        0                        0                        1                        0                        0                        0                        1                        0.12193714581596143      0.2861870840739102       0.03992162571427562      0.08168797865403814      0.08148669769634913      0.11630965344882993
-150                      -7.556811143753425       -2.535096525246397       -1                       0                        0                        0                        1                        0                        0                        0                        1                        0.12039957231336597      0.28325626074473725      0.04723670749319142      0.09691439216864672      0.03998045506721159      0.02235579109346102
-150                      -8.999999999999998       0                        -1                       0                        0                        0                        1                        0                        0                        0                        1                        0.12129592979858905      0.28570858489083895      0.05466112667949006      0.11273664585087867      -6.220175012095952E-4    -0.06666054136457551
-150                      -6.000000000000005       -15                      -0.5                     0                        -0.5                     0.5                      0.5                      0                        0                        0.5                      0.5                      0.5806267821616427       1.314261068230745        0.06136012768737124      0.1280194558049446       0.5637435966660892       1.261264664505682
-150                      -5.887573557778157       -10.10833407711561       -1                       0                        0                        0                        1                        0                        0                        0                        1                        0.1429165606765906       0.33207374986014376      0.04484734865532358      0.0921657974676973       0.1863029343508413       0.36518287414983996
-150                      -7.77425052285912        -7.6947109568791605      -1                       0                        0                        0                        1                        0                        0                        0                        1                        0.13251739273796975      0.3092925441845655       0.054671646701855425     0.11212916307232276      0.13298574000952187      0.23592250881479543
-150                      -8.31268257330177        -10.36265257769229       -1                       0                        0                        0                        1                        0                        0                        0                        1                        0.14240455181159517      0.33033370128788386      0.06440739193409126      0.13251841870258615      0.1993236910086716       0.39511370704872584
-150                      -7.405849811833813       -12.5277726489111        -1                       0                        0                        0                        1                        0                        0                        0                        1                        0.14483367585119192      0.33552901289792025      0.05435131426670342      0.11115483152002525      0.24560947479743675      0.5148566928193742
-150                      -10.478260918069816      -2.204974052738475       -1                       0                        0                        0                        1                        0                        0                        0                        1                        0.12566119539845536      0.29511445360822947      0.06383334200913854      0.13145945712753979      0.03635334181121206      0.013445236520038156
-150                      -12                      0                        -1                       0                        0                        0                        1                        0                        0                        0                        1                        0.12868740376755716      0.3023314767385487       0.07089685057512976      0.14703014398622852      -0.0010678320769076759   -0.0686195575361678
-150                      -9.054204429381377       -4.881135001351047       -1                       0                        0                        0                        1                        0                        0                        0                        1                        0.12608826036610524      0.29562957464595246      0.05839635605868848      0.11977190118660093      0.08113183199476375      0.11454737691602557