% Model:              P2_wire.mph
% Version:            COMSOL 5.3.1.180
% Date:               May 24 2020, 19:04
% Dimension:          3
% Nodes:              7444
% Expressions:        15
% Description:        Normal, x component, Normal, y component, Normal, z component, Tangent 1, x component, Tangent 1, y component, Tangent 1, z component, Tangent 2, x component, Tangent 2, y component, Tangent 2, z component, , , , , , 
% Length unit:        nm
% X                       Y                        Z                        nx @ lambda0=1400        ny @ lambda0=1400        nz @ lambda0=1400        t1x @ lambda0=1400       t1y @ lambda0=1400       t1z @ lambda0=1400       t2x @ lambda0=1400       t2y @ lambda0=1400       t2z @ lambda0=1400       down(real(ewfd.Ex)) (V/m) @ lambda0=1400 down(imag(ewfd.Ex)) (V/m) @ lambda0=1400 down(real(ewfd.Ey)) (V/m) @ lambda0=1400 down(imag(ewfd.Ey)) (V/m) @ lambda0=1400 down(real(ewfd.Ez)) (V/m) @ lambda0=1400 down(imag(ewfd.Ez)) (V/m) @ lambda0=1400
-150                      13.024412145596328       -2.2664548161778706      -1                       0                        0                        0                        1                        0                        0                        0                        1                        0.015026689513337143     -0.0017524141601413276   -0.10756865518718195     0.020103523109494374     0.004427430166391138     0.014820301422134242
-150                      15                       0                        -1                       0                        0                        0                        1                        0                        0                        0                        1                        0.017756224570363625     -0.0021605374342613007   -0.09678002324396937     0.011071332440628632     2.7041101116956643E-4    0.020168158768821835
-150                      15                       -3                       -1                       0                        0                        0                        1                        2.093456611578367E-17    0                        0                        1                        0.017947706013092896     -0.001956785270850218    -0.09806354696993813     0.01990516261281541      0.00690156029765722      0.01855317353090346
-150                      12                       0                        -1                       0                        0                        0                        1                        0                        0                        0                        1                        0.013305059537119487     -0.0015757349859848414   -0.10989224905848423     0.012624988072644457     1.3677483821893452E-4    0.01379128408353712
-150                      12.790348106097305       -4.608579165515489       -1                       0                        0                        0                        1                        0                        0                        0                        1                        0.014910093121150677     -0.0016671820447353115   -0.11009520424036719     0.0288395151952861       0.00895505974407649      0.012661624679645024
-150                      15                       -5.999999999999998       -1                       0                        0                        0                        1                        1.0467283057891835E-17   0                        0                        1                        0.01838081291055868      -0.0016579327497495758   -0.10127935723353132     0.029358970867827638     0.014099523522201278     0.015295572789952505
-150                      12.585112217398706       -7.372506221948406       -1                       0                        0                        0                        1                        0                        0                        0                        1                        0.015341180513572278     -0.0017101389040795774   -0.11539902233466925     0.04019043110237264      0.014377612064510244     0.009351252070206345
-150                      15                       -9                       -1                       -6.6990611570507745E-16  0                        -6.6990611570507745E-16  1                        -2.093456611578367E-17   0                        0                        1                        0.019321448026601958     -0.0014753229936605293   -0.10730564800829838     0.040145409616131784     0.022377035126147513     0.010409840759146688
-150                      12.862438552484607       -13.090714503420783      -1                       0                        0                        0                        1                        0                        0                        0                        1                        0.02447631084426677      -0.0027385438682847054   -0.13242687539961728     0.06688679066484601      0.03728536160712879      -8.813359760249677E-4
-150                      15                       -12                      -1                       0                        0                        0                        1                        0                        0                        0                        1                        0.020708082272187303     -0.0015007013198048106   -0.11771699411082186     0.05302682182078702      0.032355428604686466     0.003682546422459996
-150                      15                       -15                      -0.5714285714285714      0                        -0.42857142857142855     0.42857142857142855      0.5714285714285714       0                        0                        0.42857142857142855      0.5714285714285714       0.07432784444584614      -0.00705074598846925     -0.1369794685081667      0.06958442327652538      0.0818390800217096       -0.0089935997673368
-150                      10.365032846879405       -2.721674357050913       -1                       0                        0                        0                        1                        0                        0                        0                        1                        0.011135664320652378     -0.001317430654501069    -0.11423872111254361     0.023688470023782788     0.004109473780463055     0.010197249112769693
-150                      9                        0                        -1                       0                        0                        0                        1                        0                        0                        0                        1                        0.009337583411527734     -0.0011289893377502442   -0.11571299641935091     0.013313263231016058     1.1325776258054491E-4    0.009156042072571856
-150                      12                       -15                      -0.5                     0                        -0.5                     0.5                      0.5                      0                        0                        0.5                      0.5                      0.06427960815476283      -0.007611597711970717    -0.14570331481395818     0.08058742396544526      0.06427362372242565      -0.0074761430814610265
-150                      12.323434413051658       -10.458626820283758      -1                       0                        0                        0                        1                        0                        0                        0                        1                        0.016584789196739353     -0.0018907500446878004   -0.12377255053609301     0.05455684949817613      0.021303678557670968     0.004539331574036611
-150                      10.302733724934374       -5.797389321197819       -1                       0                        0                        0                        1                        0                        0                        0                        1                        0.01153052298440671      -0.0013255912175057132   -0.11761251970390585     0.03635791162654499      0.008758221661056094     0.008158087879411625
-150                      10.377847994317822       -8.126938993044654       -1                       0                        0                        0                        1                        0                        0                        0                        1                        0.012121609306147928     -0.0013692508578326992   -0.12162915993839889     0.04657999819273784      0.012889386286028837     0.006043443992560805
-150                      10.369747051574686       -12.848156083780683      -1                       0                        0                        0                        1                        0                        0                        0                        1                        0.013706825090638001     -0.0014603440912300649   -0.13490419812153534     0.07041651537372204      0.023916632945210858     -1.0815554956652393E-4
-150                      8.249691858913797        -4.656021902916486       -1                       0                        0                        0                        1                        0                        0                        0                        1                        0.008681185301697036     -9.791367890321632E-4    -0.11936342870351938     0.0329834104751597       0.005531720817620304     0.006612053003643674
-150                      7.301289633874127        -2.510119079396194       -1                       0                        0                        0                        1                        0                        0                        0                        1                        0.0074489546041389505    -8.807095104774406E-4    -0.11876741053354745     0.02418378621874484      0.002650841126588479     0.006465263401447842
-150                      6.000000000000001        0                        -1                       0                        0                        0                        1                        0                        0                        0                        1                        0.005983795541235497     -7.115980038960726E-4    -0.11944021466705212     0.013751511531275386     6.571410623988325E-5     0.005571588847410943
-150                      9                        -15                      -0.5                     0                        -0.5                     0.5                      0.5                      0                        0                        0.5                      0.5                      0.046648914012760716     -0.005567742727404675    -0.14859609170937715     0.08548458461473864      0.04416398463075961      -0.005270567809558902
-150                      8.93412204932741         -10.35696014811743       -1                       0                        0                        0                        1                        0                        0                        0                        1                        0.01108864411591185      -0.0012691042226742441   -0.1294653990490723      0.05919397799740555      0.014683605938067347     0.002692267913774405
-150                      7.7600903665538          -7.364158143642836       -1                       0                        0                        0                        1                        0                        0                        0                        1                        0.008481409851272765     -9.539998931066077E-4    -0.1239808639854147      0.04558501339750835      0.008257594671731929     0.0045479381475480645
-149.99999999999997       7.503359797270751        -12.536336552970392      -1                       0                        0                        0                        1                        0                        0                        0                        1                        0.01029974237667653      -0.0011461991388122207   -0.13786029081222037     0.0723674436102288       0.016544926443142836     6.28931763961321E-6
-150                      5.922990469656715        -4.954553638779668       -1                       0                        0                        0                        1                        0                        0                        0                        1                        0.0060439736421195505    -6.759291993390209E-4    -0.12227800265297999     0.03550122923308694      0.004092291526764478     0.004318320876255881
-150                      4.365554848678924        -2.4659095623873393      -1                       0                        0                        0                        1                        0                        0                        0                        1                        0.004347907187250124     -5.1415434186275E-4      -0.12136104172304836     0.02475819899272988      0.001488187252999538     0.0036157559222045337
-150                      3.0000000000000027       0                        -1                       0                        0                        0                        1                        0                        0                        0                        1                        0.0029627608653275705    -3.5357133844704427E-4   -0.12147652374453792     0.013982013972903619     3.9690823946134155E-5    0.0026329779541876194
-150                      5.999999999999998        -15                      -0.5                     0                        -0.5                     0.5                      0.5                      0                        0                        0.5                      0.5                      0.02623707259309344      -0.0031381879124167075   -0.15062261598036075     0.08843444214234995      0.0251447076864529       -0.0030032338426260355
-150                      6.040636571622364        -10.017161657388046      -1                       0                        0                        0                        1                        0                        0                        0                        1                        0.006846442776828776     -7.140164384193438E-4    -0.13145612058724146     0.059962905558026636     0.009088048001566392     0.0017971002987324676
-150                      4.603377181183674        -7.5108958493011535      -1                       0                        0                        0                        1                        0                        0                        0                        1                        0.0048426740413510345    -5.214005523412713E-4    -0.12707709394056818     0.04811708227814424      0.004906892245723229     0.00238696485612657
-150                      4.499999999999999        -12.401923788646682      -1                       0                        0                        0                        1                        0                        0                        0                        1                        0.005838272625340938     -6.65529747757394E-4     -0.13963284582159782     0.0738187972726963       0.009526120369206085     -5.2550811946240524E-6
-150                      2.9031287965278474       -4.919635289322013       -1                       0                        0                        0                        1                        0                        0                        0                        1                        0.0029191983735119254    -3.4349451204666523E-4   -0.12420419469214672     0.03623973722111811      0.001954248787173332     0.001993180416546843
-150                      1.4130725690400527       -2.487649256217729       -1                       0                        0                        0                        1                        0                        0                        0                        1                        0.0013830833797080812    -1.606724657572126E-4    -0.12263551700931492     0.025215995368829475     4.917628265309622E-4     0.0011230955751310252
-150                      4.4408920985006257E-16   0                        -1                       0                        0                        0                        1                        0                        0                        0                        1                        -8.604227423973191E-7    -3.7893641694497233E-6   -0.12213012365371616     0.014057996870130707     1.0058273607647416E-5    -2.521506186288137E-6
-150                      2.999999999999998        -15                      -0.5                     0                        -0.5                     0.5                      0.5                      0                        0                        0.5                      0.5                      0.015071371406176334     -0.0018393604420480734   -0.15244136000193323     0.0900984183905974       0.014522432697472198     -0.0017706919621636107
-150                      2.979934246219438        -9.897104988139558       -1                       0                        0                        0                        1                        0                        0                        0                        1                        0.0034107812875937785    -3.901333571059069E-4    -0.13295419056071991     0.0608037740383254       0.0043844774098593       8.449462009837379E-4
-150                      1.5126323121231742       -7.344008902590236       -1                       0                        0                        0                        1                        0                        0                        0                        1                        0.0015696645598752418    -1.782599693204638E-4    -0.12807802054126205     0.04811867259518679      0.0015405891276423043    7.722290110726486E-4
-150                      1.4999999999999956       -12.40192378864668       -1                       0                        0                        0                        1                        0                        0                        0                        1                        0.0011643814537423552    -8.305068011915235E-5    -0.14032371496771398     0.07478939096857751      0.0025557823073468636    7.29248303019982E-5
-150                      -0.08835633052040935     -4.906875722608497       -1                       0                        0                        0                        1                        0                        0                        0                        1                        -1.127415464527223E-4    2.3819444112361144E-5    -0.12477388414891984     0.0364451075158286       -5.140757986466443E-5    -6.090078437543165E-5
-150                      -1.5378408664096497      -2.4968543247161277      -1                       0                        0                        0                        1                        0                        0                        0                        1                        -0.0014517902087573993   1.6621686099882517E-4    -0.12261762560532634     0.025252062353534967     -5.399955768300313E-4    -0.0012262921151839645
-150                      -3                       0                        -1                       0                        0                        0                        1                        0                        0                        0                        1                        -0.0029581914467842474   3.678832443455088E-4     -0.12146725997966083     0.013979019162154006     -4.1087130321295884E-5   -0.0026397442438305494
-149.99999999999997       -4.496403249731884E-15   -14.999999999999996      -0.5                     0                        -0.5                     0.5                      0.5                      0                        0                        0.5                      0.5                      -8.128845779650962E-5    2.142169850491557E-5     -0.15276911020416614     0.09059286178988739      -2.1994529789314926E-5   5.42298080473574E-6
-150                      -0.06730883912800323     -9.960532684314945       -1                       0                        0                        0                        1                        0                        0                        0                        1                        2.659481801721951E-5     -2.9669777295388584E-5   -0.13365558177915562     0.06157358782200212      -7.453123430606111E-5    -2.304180833573313E-5
-150                      -1.6120846835972686      -7.4880657430728865      -1                       0                        0                        0                        1                        0                        0                        0                        1                        -0.001695520502251641    1.9441761033338507E-4    -0.12830653745351187     0.0488177936255711       -0.0016972233122126198   -7.97684045723336E-4
-150                      -1.5423314151646614      -12.531950780199075      -1                       0                        0                        0                        1                        0                        0                        0                        1                        -0.0013955216560068244   1.4910511762771924E-4    -0.14068194737869674     0.07552174889945378      -0.0026268673970081444   -5.618726506202646E-5
-150                      -3.092511493546639       -4.971773352185409       -1                       0                        0                        0                        1                        0                        0                        0                        1                        -0.003145637706149016    3.738097338102559E-4     -0.12416874196509664     0.03644636075150858      -0.00210360759325439     -0.0021213539463321666
-150                      -4.522988598134198       -2.5043853061995267      -1                       0                        0                        0                        1                        0                        0                        0                        1                        -0.004542223143881474    5.481807061865552E-4     -0.12129883206528924     0.02490620530319206      -0.0015618250865054228   -0.0037469441940571357
-150.00000000000003       -6                       0                        -1                       0                        0                        0                        1                        0                        0                        0                        1                        -0.00600980763929905     7.25928844586317E-4      -0.11944148937450631     0.013741934316497213     -9.434946761277051E-5    -0.005570621640676721
-150                      -3.0000000000000053      -15                      -0.5                     0                        -0.5                     0.5                      0.5                      0                        0                        0.5                      0.5                      -0.014657955387606503    0.0018221259450793227    -0.15250439851678751     0.09011146241915659      -0.014339655017123679    0.001791105820421317
-150                      -3.014644314078251       -10.047465415253221      -1                       0                        0                        0                        1                        0                        0                        0                        1                        -0.003381644331053729    3.5933335489901673E-4    -0.13330208250655065     0.06157623729240394      -0.004520351822246887    -8.023476000160765E-4
-150                      -4.693355065327848       -7.612972174972897       -1                       0                        0                        0                        1                        0                        0                        0                        1                        -0.005062277856902067    5.88723218326559E-4      -0.1271843111188908      0.048580870231590356     -0.005065555294015291    -0.002396387557613907
-150                      -4.518069238881895       -12.50541643551797       -1                       0                        0                        0                        1                        0                        0                        0                        1                        -0.005177601296792844    5.773334483764361E-4     -0.13952923268980055     0.07434069089986137      -0.008658287201199835    -7.043143396913719E-5
-150                      -6.1063958461537196      -5.076693658164348       -1                       0                        0                        0                        1                        0                        0                        0                        1                        -0.006266984059527035    7.117977899639161E-4     -0.12225825719340777     0.035978551687451794     -0.0043368169976611      -0.004424054274006702
-150                      -7.556811143753425       -2.535096525246397       -1                       0                        0                        0                        1                        0                        0                        0                        1                        -0.0077823163758563895   9.150281709994263E-4     -0.11847529455813122     0.0241983525124278       -0.0027405956934145395   -0.006753025430549706
-150                      -8.999999999999998       0                        -1                       0                        0                        0                        1                        0                        0                        0                        1                        -0.00933068749849677     0.0011108452567771606    -0.11571368804757987     0.013308168615747991     -1.4621638837094425E-4   -0.009151363741683585
-150                      -6.000000000000005       -15                      -0.5                     0                        -0.5                     0.5                      0.5                      0                        0                        0.5                      0.5                      -0.027665824618844124    0.0033852825862806467    -0.1510685785322814      0.0884959827749906       -0.026751071600675174    0.0032802356474558162
-150                      -5.887573557778157       -10.10833407711561       -1                       0                        0                        0                        1                        0                        0                        0                        1                        -0.006895947836250212    7.654273914639553E-4     -0.13182582874183016     0.06053282499511951      -0.009035540597180038    -0.0016711948954387275
-150                      -7.77425052285912        -7.6947109568791605      -1                       0                        0                        0                        1                        0                        0                        0                        1                        -0.008642146916482388    9.732081508156948E-4     -0.12461425629441154     0.04716303263129116      -0.00875517729207085     -0.00430508431120416
-150                      -8.31268257330177        -10.36265257769229       -1                       0                        0                        0                        1                        0                        0                        0                        1                        -0.009805411801495661    0.0011417926779952298    -0.1301213258234189      0.059830709402843185     -0.013578934214016864    -0.002416940406113882
-150                      -7.405849811833813       -12.5277726489111        -1                       0                        0                        0                        1                        0                        0                        0                        1                        -0.008377451436814001    9.306214090358473E-4     -0.1373658537843853      0.07236351550818394      -0.014244698926428156    -2.688958712819887E-4
-150                      -10.478260918069816      -2.204974052738475       -1                       0                        0                        0                        1                        0                        0                        0                        1                        -0.011335072835817838    0.0013299564874153594    -0.11370918555305758     0.021547791861518423     -0.0034535355716736366   -0.010577530059352726
-150                      -12                      0                        -1                       0                        0                        0                        1                        0                        0                        0                        1                        -0.013410247009778628    0.0016464059136054934    -0.10985666787450281     0.012643389981343673     -1.0978593804828076E-4   -0.013793527701944253
-150                      -9.054204429381377       -4.881135001351047       -1                       0                        0                        0                        1                        0                        0                        0                        1                        -0.009627808108678545    0.001094724592746179     -0.1185059646504133      0.03345323485799259      -0.006375138322825463    -0.007356607320902143